# vtk DataFile Version 3.0
VectorEM Field Export
ASCII
DATASET UNSTRUCTURED_GRID
POINTS 972 double
0.00000000e+00 0.00000000e+00 0.00000000e+00
2.28600000e-02 0.00000000e+00 0.00000000e+00
2.28600000e-02 1.01600000e-02 0.00000000e+00
0.00000000e+00 1.01600000e-02 0.00000000e+00
0.00000000e+00 0.00000000e+00 5.00000000e-02
2.28600000e-02 0.00000000e+00 5.00000000e-02
2.28600000e-02 1.01600000e-02 5.00000000e-02
0.00000000e+00 1.01600000e-02 5.00000000e-02
2.85750000e-03 0.00000000e+00 0.00000000e+00
5.71500000e-03 0.00000000e+00 0.00000000e+00
8.57250000e-03 0.00000000e+00 0.00000000e+00
1.14300000e-02 0.00000000e+00 0.00000000e+00
1.42875000e-02 0.00000000e+00 0.00000000e+00
1.71450000e-02 0.00000000e+00 0.00000000e+00
2.00025000e-02 0.00000000e+00 0.00000000e+00
2.28600000e-02 2.54000000e-03 0.00000000e+00
2.28600000e-02 5.08000000e-03 0.00000000e+00
2.28600000e-02 7.62000000e-03 0.00000000e+00
2.00025000e-02 1.01600000e-02 0.00000000e+00
1.71450000e-02 1.01600000e-02 0.00000000e+00
1.42875000e-02 1.01600000e-02 0.00000000e+00
1.14300000e-02 1.01600000e-02 0.00000000e+00
8.57250000e-03 1.01600000e-02 0.00000000e+00
5.71500000e-03 1.01600000e-02 0.00000000e+00
2.85750000e-03 1.01600000e-02 0.00000000e+00
0.00000000e+00 7.62000000e-03 0.00000000e+00
0.00000000e+00 5.08000000e-03 0.00000000e+00
0.00000000e+00 2.54000000e-03 0.00000000e+00
2.85750000e-03 0.00000000e+00 5.00000000e-02
5.71500000e-03 0.00000000e+00 5.00000000e-02
8.57250000e-03 0.00000000e+00 5.00000000e-02
1.14300000e-02 0.00000000e+00 5.00000000e-02
1.42875000e-02 0.00000000e+00 5.00000000e-02
1.71450000e-02 0.00000000e+00 5.00000000e-02
2.00025000e-02 0.00000000e+00 5.00000000e-02
2.28600000e-02 2.54000000e-03 5.00000000e-02
2.28600000e-02 5.08000000e-03 5.00000000e-02
2.28600000e-02 7.62000000e-03 5.00000000e-02
2.00025000e-02 1.01600000e-02 5.00000000e-02
1.71450000e-02 1.01600000e-02 5.00000000e-02
1.42875000e-02 1.01600000e-02 5.00000000e-02
1.14300000e-02 1.01600000e-02 5.00000000e-02
8.57250000e-03 1.01600000e-02 5.00000000e-02
5.71500000e-03 1.01600000e-02 5.00000000e-02
2.85750000e-03 1.01600000e-02 5.00000000e-02
0.00000000e+00 7.62000000e-03 5.00000000e-02
0.00000000e+00 5.08000000e-03 5.00000000e-02
0.00000000e+00 2.54000000e-03 5.00000000e-02
0.00000000e+00 0.00000000e+00 2.94117647e-03
0.00000000e+00 0.00000000e+00 5.88235294e-03
0.00000000e+00 0.00000000e+00 8.82352941e-03
0.00000000e+00 0.00000000e+00 1.17647059e-02
0.00000000e+00 0.00000000e+00 1.47058824e-02
0.00000000e+00 0.00000000e+00 1.76470588e-02
0.00000000e+00 0.00000000e+00 2.05882353e-02
0.00000000e+00 0.00000000e+00 2.35294118e-02
0.00000000e+00 0.00000000e+00 2.64705882e-02
0.00000000e+00 0.00000000e+00 2.94117647e-02
0.00000000e+00 0.00000000e+00 3.23529412e-02
0.00000000e+00 0.00000000e+00 3.52941176e-02
0.00000000e+00 0.00000000e+00 3.82352941e-02
0.00000000e+00 0.00000000e+00 4.11764706e-02
0.00000000e+00 0.00000000e+00 4.41176471e-02
0.00000000e+00 0.00000000e+00 4.70588235e-02
2.28600000e-02 0.00000000e+00 2.94117647e-03
2.28600000e-02 0.00000000e+00 5.88235294e-03
2.28600000e-02 0.00000000e+00 8.82352941e-03
2.28600000e-02 0.00000000e+00 1.17647059e-02
2.28600000e-02 0.00000000e+00 1.47058824e-02
2.28600000e-02 0.00000000e+00 1.76470588e-02
2.28600000e-02 0.00000000e+00 2.05882353e-02
2.28600000e-02 0.00000000e+00 2.35294118e-02
2.28600000e-02 0.00000000e+00 2.64705882e-02
2.28600000e-02 0.00000000e+00 2.94117647e-02
2.28600000e-02 0.00000000e+00 3.23529412e-02
2.28600000e-02 0.00000000e+00 3.52941176e-02
2.28600000e-02 0.00000000e+00 3.82352941e-02
2.28600000e-02 0.00000000e+00 4.11764706e-02
2.28600000e-02 0.00000000e+00 4.41176471e-02
2.28600000e-02 0.00000000e+00 4.70588235e-02
2.28600000e-02 1.01600000e-02 2.94117647e-03
2.28600000e-02 1.01600000e-02 5.88235294e-03
2.28600000e-02 1.01600000e-02 8.82352941e-03
2.28600000e-02 1.01600000e-02 1.17647059e-02
2.28600000e-02 1.01600000e-02 1.47058824e-02
2.28600000e-02 1.01600000e-02 1.76470588e-02
2.28600000e-02 1.01600000e-02 2.05882353e-02
2.28600000e-02 1.01600000e-02 2.35294118e-02
2.28600000e-02 1.01600000e-02 2.64705882e-02
2.28600000e-02 1.01600000e-02 2.94117647e-02
2.28600000e-02 1.01600000e-02 3.23529412e-02
2.28600000e-02 1.01600000e-02 3.52941176e-02
2.28600000e-02 1.01600000e-02 3.82352941e-02
2.28600000e-02 1.01600000e-02 4.11764706e-02
2.28600000e-02 1.01600000e-02 4.41176471e-02
2.28600000e-02 1.01600000e-02 4.70588235e-02
0.00000000e+00 1.01600000e-02 2.94117647e-03
0.00000000e+00 1.01600000e-02 5.88235294e-03
0.00000000e+00 1.01600000e-02 8.82352941e-03
0.00000000e+00 1.01600000e-02 1.17647059e-02
0.00000000e+00 1.01600000e-02 1.47058824e-02
0.00000000e+00 1.01600000e-02 1.76470588e-02
0.00000000e+00 1.01600000e-02 2.05882353e-02
0.00000000e+00 1.01600000e-02 2.35294118e-02
0.00000000e+00 1.01600000e-02 2.64705882e-02
0.00000000e+00 1.01600000e-02 2.94117647e-02
0.00000000e+00 1.01600000e-02 3.23529412e-02
0.00000000e+00 1.01600000e-02 3.52941176e-02
0.00000000e+00 1.01600000e-02 3.82352941e-02
0.00000000e+00 1.01600000e-02 4.11764706e-02
0.00000000e+00 1.01600000e-02 4.41176471e-02
0.00000000e+00 1.01600000e-02 4.70588235e-02
7.17433115e-03 2.51308909e-03 0.00000000e+00
1.56866711e-02 7.56083255e-03 0.00000000e+00
1.86869687e-02 2.57510494e-03 0.00000000e+00
4.16822988e-03 7.58908195e-03 0.00000000e+00
9.99725292e-03 7.55999355e-03 0.00000000e+00
1.28597363e-02 2.47109376e-03 0.00000000e+00
2.04116180e-03 3.87338556e-03 0.00000000e+00
2.08188986e-02 6.28661532e-03 0.00000000e+00
7.10998032e-03 7.70482935e-03 0.00000000e+00
5.86965713e-03 5.03891236e-03 0.00000000e+00
1.57352842e-02 2.47781355e-03 0.00000000e+00
1.69881546e-02 5.06484754e-03 0.00000000e+00
1.42682548e-02 4.97492461e-03 0.00000000e+00
1.14273266e-02 4.97831624e-03 0.00000000e+00
1.00024231e-02 2.47540510e-03 0.00000000e+00
8.59682854e-03 5.04509095e-03 0.00000000e+00
1.28495009e-02 7.56567782e-03 0.00000000e+00
4.32027248e-03 2.49742733e-03 0.00000000e+00
1.84987018e-02 7.69094197e-03 0.00000000e+00
2.08881465e-02 3.88865714e-03 0.00000000e+00
1.97112370e-03 6.27204169e-03 0.00000000e+00
1.84378686e-03 1.78216258e-03 0.00000000e+00
2.09638686e-02 8.36419592e-03 0.00000000e+00
2.10595231e-02 1.80075242e-03 0.00000000e+00
1.79937072e-03 8.36022473e-03 0.00000000e+00
3.67408900e-03 5.05416978e-03 0.00000000e+00
1.91647606e-02 5.08879505e-03 0.00000000e+00
2.54713354e-03 0.00000000e+00 1.91176471e-02
2.83994702e-03 0.00000000e+00 2.76671186e-02
2.54713354e-03 0.00000000e+00 3.67647059e-02
2.03012156e-02 0.00000000e+00 1.32534218e-02
2.03174101e-02 0.00000000e+00 3.97144727e-02
2.54713354e-03 0.00000000e+00 1.02941176e-02
2.03128364e-02 0.00000000e+00 2.20590381e-02
2.02986333e-02 0.00000000e+00 3.08953633e-02
1.27758246e-02 0.00000000e+00 2.78762741e-03
9.89388509e-03 0.00000000e+00 4.76237379e-02
1.59125774e-02 0.00000000e+00 4.72960851e-02
7.31037389e-03 0.00000000e+00 3.00870819e-03
2.02900189e-02 0.00000000e+00 7.42442032e-03
2.82936097e-03 0.00000000e+00 4.23345661e-02
4.28956033e-03 0.00000000e+00 4.79548806e-02
1.85640348e-02 0.00000000e+00 1.99304226e-03
2.04134491e-02 0.00000000e+00 4.55273197e-02
2.32484544e-03 0.00000000e+00 4.35969913e-03
2.03179777e-02 0.00000000e+00 4.26559117e-02
1.77812267e-02 0.00000000e+00 4.11887855e-02
1.77731638e-02 0.00000000e+00 3.82589101e-02
1.52438206e-02 0.00000000e+00 3.97318804e-02
1.52316375e-02 0.00000000e+00 3.68088413e-02
1.27016074e-02 0.00000000e+00 3.82834437e-02
1.26914957e-02 0.00000000e+00 3.53571527e-02
1.01872204e-02 0.00000000e+00 3.68286979e-02
1.01780037e-02 0.00000000e+00 3.39054165e-02
1.26843056e-02 0.00000000e+00 3.24284875e-02
1.01680905e-02 0.00000000e+00 3.09679017e-02
1.26742852e-02 0.00000000e+00 2.94936567e-02
1.01557975e-02 0.00000000e+00 2.80385109e-02
1.26632875e-02 0.00000000e+00 2.65583033e-02
1.01190871e-02 0.00000000e+00 2.50992004e-02
1.26503376e-02 0.00000000e+00 2.36195513e-02
1.01002357e-02 0.00000000e+00 2.21597970e-02
1.26374443e-02 0.00000000e+00 2.06803504e-02
1.00863561e-02 0.00000000e+00 1.92208530e-02
1.26257058e-02 0.00000000e+00 1.77411308e-02
1.00747181e-02 0.00000000e+00 1.62816791e-02
1.26120445e-02 0.00000000e+00 1.48032405e-02
1.00652448e-02 0.00000000e+00 1.33457122e-02
1.25980791e-02 0.00000000e+00 1.18690954e-02
1.00581457e-02 0.00000000e+00 1.04161825e-02
1.01824958e-02 0.00000000e+00 3.97548280e-02
7.60396633e-03 0.00000000e+00 3.24501205e-02
7.55971627e-03 0.00000000e+00 2.36399376e-02
7.52821870e-03 0.00000000e+00 1.48198145e-02
1.25854023e-02 0.00000000e+00 8.94442718e-03
1.51641283e-02 0.00000000e+00 1.62611294e-02
1.52004565e-02 0.00000000e+00 2.50693655e-02
1.51214962e-02 0.00000000e+00 1.03946745e-02
1.51068047e-02 0.00000000e+00 7.47261649e-03
1.00508651e-02 0.00000000e+00 7.49875524e-03
7.76329145e-03 0.00000000e+00 3.84028227e-02
7.75752932e-03 0.00000000e+00 4.11524146e-02
1.51850933e-02 0.00000000e+00 4.25342248e-02
7.55380477e-03 0.00000000e+00 8.96685225e-03
1.02612707e-02 0.00000000e+00 4.25269780e-02
1.77576494e-02 0.00000000e+00 3.53320935e-02
1.52141642e-02 0.00000000e+00 3.09448857e-02
7.66146100e-03 0.00000000e+00 4.40133827e-02
5.18898771e-03 0.00000000e+00 3.99133694e-02
7.52520820e-03 0.00000000e+00 6.04627448e-03
5.05150425e-03 0.00000000e+00 7.84416769e-03
1.00442670e-02 0.00000000e+00 4.61858180e-03
1.76589718e-02 0.00000000e+00 8.90724787e-03
1.75548772e-02 0.00000000e+00 6.28057040e-03
1.51664958e-02 0.00000000e+00 4.84111298e-03
1.76972586e-02 0.00000000e+00 1.18292170e-02
1.27123704e-02 0.00000000e+00 4.11630442e-02
1.27551074e-02 0.00000000e+00 4.40614820e-02
2.02800620e-02 0.00000000e+00 1.03387784e-02
1.77805748e-02 0.00000000e+00 1.47774528e-02
1.25771605e-02 0.00000000e+00 6.02894445e-03
1.76190910e-02 0.00000000e+00 4.45971027e-02
7.55945155e-03 0.00000000e+00 1.18841945e-02
4.98897254e-03 0.00000000e+00 1.33562719e-02
5.01525999e-03 0.00000000e+00 1.66980784e-02
7.57991451e-03 0.00000000e+00 1.78204277e-02
7.58454004e-03 0.00000000e+00 2.07116356e-02
5.00603655e-03 0.00000000e+00 2.21825610e-02
[...]
CELL_DATA 4227
SCALARS E_magnitude double 1
LOOKUP_TABLE default
6.66285863e-02
3.50568980e-02
2.94907929e-01
3.88098999e-01
1.49667167e-01
1.18074976e-01
1.30311997e+00
1.62713862e-01
2.05632849e-01
1.44656819e-01
5.48562488e-03
1.45432992e-01
2.17689944e-01
5.24086568e-01
5.87952016e+00
5.59957890e-02
4.45402911e-01
2.23520286e-02
4.32614152e-01
5.30271813e-01
4.01160430e-02
2.45264451e-01
3.59639029e-01
2.72456878e-01
2.14060549e-02
1.52514090e-01
1.48166111e-01
5.29124077e-01
2.87119223e-01
3.18632046e-01
1.17419080e-01
5.12814748e-01
1.57075211e-02
5.38462083e-03
1.72224246e-02
5.00764882e-02
6.73056548e-01
1.78119581e-01
4.70604789e-01
8.19961718e-02
2.31814930e-02
5.33660525e-02
3.55622851e-01
2.19355247e+00
4.45279002e-01
4.39806556e-01
4.89989817e-02
4.06376239e-02
2.38136217e-01
2.86192439e-01
3.32409912e+00
4.37496813e-01
2.32412892e-01
4.40813966e-01
5.36820328e-01
2.70204934e-01
1.50972342e+01
3.90439449e-01
7.59381453e-02
2.97934597e-01
3.16583499e-01
3.49456856e-01
4.24728471e-02
2.37052176e-01
8.53908038e-02
5.00201162e-02
1.98467283e-01
2.53659558e-01
3.48341000e-02
2.02406918e-01
2.98998023e-01
2.78120326e-01
7.52404188e-01
1.30758452e-01
1.04773361e-01
2.33434770e-01
2.87157722e-02
1.09626420e-01
1.52681797e-01
7.71441937e-02
7.44140302e-02
4.76941835e-01
2.43078540e-02
1.19414154e-01
1.71188906e-01
1.85820076e+00
2.13843996e-01
1.24773192e-01
2.75989285e-01
1.16272717e-01
6.85116521e-03
1.75543950e-01
7.44547263e-02
2.24004397e-01
4.85118068e-01
2.83734740e-02
5.20305699e-01
2.88080958e-01
2.53245093e-01
7.51988894e-02
3.45227848e-01
4.06809538e-01
4.78963338e-01
6.97755367e-02
4.95486656e-02
2.96491906e-01
3.53331574e-01
2.72578700e-01
4.51872021e-01
8.94932611e-03
2.10367148e-01
1.51789463e-01
1.86893570e-01
1.67723114e-01
2.57398928e-01
6.25736867e-02
9.05904374e-03
5.70965778e-01
4.69653769e-01
1.20161984e-01
4.43995223e-01
2.21142576e-01
1.97839764e-01
7.40157747e-02
2.86185863e+00
2.01226135e-01
1.57809140e+01
2.56717211e+00
2.96860137e+00
5.56285477e-01
1.91963877e-02
4.23966769e-01
8.94699640e-02
5.20389921e-01
9.34912535e-02
4.36066641e-01
5.15097432e-01
5.24175898e-01
4.91410154e-01
4.60117773e-01
5.49511099e-01
2.16874911e-02
5.38648223e-01
2.31406901e-02
5.59835392e-01
4.10597875e-01
1.55112077e-01
5.32366260e-01
2.19065409e-01
4.57183997e-02
1.31954381e-01
3.55125111e-01
6.39838257e-02
4.20358918e-01
1.61158474e-01
3.12876061e+00
1.55998074e+00
3.34280293e-01
1.00301288e-01
2.89616478e-01
2.82552906e-01
9.25817928e-02
4.56746672e-02
3.88708835e-01
5.49774282e-01
3.13226106e-02
2.14121717e-01
7.96604666e-02
3.64222811e-01
3.18166330e-01
5.30615478e-01
4.20297702e-02
5.57603623e-01
2.40541491e-01
7.17482445e-01
6.89803348e-01
4.25152826e-01
2.98219738e-01
4.01586182e-01
4.00133540e-01
1.67704700e-01
9.46815236e-01
6.50571847e-02
2.08398398e+00
4.25191435e-01
4.27992286e-01
3.35917152e-01
4.63164126e-02
2.35069730e-01
3.25247016e-01
3.35209392e-02
3.50241422e-01
2.00320403e-01
1.67714925e-02
5.21898160e-02
7.58138200e-02
6.91377291e-02
2.29271785e-02
4.27567372e-02
1.84230967e-01
4.67239273e-01
1.55288845e-01
1.69811349e-01
3.93044142e-02
1.98867711e-01
4.48302613e-01
3.11009784e-02
4.88632281e-01
4.16326888e-01
1.15825829e-01
5.31871724e-01
1.15617865e-01
2.27015932e-01
1.42016595e-01
5.00899803e-01
2.06510589e-02
2.79098615e-01
2.41266689e-02
3.69395279e-01
1.53057044e-01
5.23354936e-01
7.61600692e-03
7.87899169e-02
3.04492359e-01
4.72817577e-01
3.60738485e-01
3.76504541e-01
4.94956372e-01
3.38155881e-01
3.41221241e-01
1.75583698e-01
1.06646565e-01
1.77399091e-02
3.83463918e-01
3.49241654e-02
3.30497217e-01
2.41975930e-02
5.04577991e-01
9.41277467e+00
4.11431507e-01
2.89614208e-02
4.68174847e-02
2.37605090e-01
4.90097250e-01
1.41647956e+00
3.00732350e-01
2.34579420e-01
4.08919541e-01
1.87224675e-01
3.61369191e-01
2.39913828e-01
3.17355241e-01
5.59034860e-01
4.91730670e-01
1.11392170e-01
5.00169088e-01
2.82398277e-01
1.02121197e-01
1.51047964e+00
4.19851647e-01
2.28693734e-01
3.21475367e-01
3.17624657e-01
2.25921414e-02
3.90898038e-01
4.05116589e-01
5.44423208e-02
3.69165867e-01
3.95315822e-03
1.68636689e-02
4.86765002e-01
2.98837525e-01
8.58165638e-02
4.44435545e-01
7.21312526e-02
4.56308742e-01
1.30832471e-02
2.92786029e-01
1.69278634e-01
2.39670631e-01
2.99012319e-01
2.19583988e-01
2.06486206e-01
2.69396744e-02
1.04416149e-01
2.03320368e-01
1.76287737e-01
1.49432945e+00
2.88653407e-01
1.46483968e-02
9.83050998e-02
1.99196653e-02
1.44984375e-01
5.18313403e-01
1.72460998e-01
6.31429341e-02
9.64572939e-01
7.81716664e-02
2.73739690e-01
3.14347084e-01
2.43268288e-02
3.36545355e-02
4.29500366e-01
3.28775085e-01
4.42372225e-01
1.00662295e+00
1.90259005e-01
2.22436083e-01
3.98518372e-01
3.53563901e-01
3.51207408e-01
1.16920977e-01
3.63260305e-01
5.04986717e-01
2.87967921e-01
3.73405546e-03
2.54556944e-01
1.50821020e-01
1.87025043e+00
2.07385727e-01
1.21579161e-01
2.72717295e-01
2.04286607e-01
1.59331155e-01
5.45400778e-01
2.20708562e-01
4.11972256e-01
2.79834091e-01
3.94089202e-01
1.27840755e-02
1.54679598e-01
4.97545645e-02
3.38161422e-01
1.38319562e+00
5.29127406e-01
2.58970555e-01
1.86999844e-02
3.52854206e-01
4.35492424e-01
2.17176265e-01
6.97667474e-02
2.17409979e-01
1.08778361e-01
4.45331038e-01
2.09906015e-01
3.20149282e-01
1.77559186e-01
7.88863881e-02
7.51315959e-02
4.02143308e-01
4.23393016e-01
2.46950540e-01
1.92982139e-01
4.72890580e-01
2.24424479e-01
4.00322570e-01
3.72132424e-01
3.76767442e-01
2.13569328e-01
3.98141546e-01
2.22247243e-02
3.89292200e-01
3.12247816e-01
5.41658714e-02
1.00777989e-01
4.86577799e-01
2.53189628e-01
7.15512876e-01
8.41759669e-02
7.79380793e-01
1.42521263e-01
7.63374694e-02
1.08426575e-01
2.65763289e-01
3.41236067e-01
9.42543540e-02
1.18610868e-01
1.94031769e-01
3.99426459e-01
6.32555686e-01
4.81967447e-01
2.97593067e-01
1.22697851e-01
1.13712726e-01
9.53206398e-03
4.25604918e-01
4.73533189e-01
1.80169537e+00
5.05043305e-01
3.09095926e-01
4.24127164e-02
3.52167469e-01
1.47529839e-01
9.31307014e-02
4.12688779e-02
4.87682060e-01
3.49223030e-02
3.30569902e-01
5.24484126e+00
6.89800221e-01
4.55379715e-01
2.44024034e-02
5.66090356e-01
5.54447235e-01
4.70750423e-01
3.95723315e-01
2.74075614e+00
1.58486929e+00
6.15446362e-02
2.46859004e-01
2.66157423e-01
2.34012032e-01
4.00981565e-01
1.21439017e-01
9.92936179e-02
3.05908988e-02
2.95528367e+00
7.52451281e-02
3.06023296e-02
1.05313702e-01
9.25532683e-01
2.15044855e-01
1.90523010e+00
8.60094721e-02
3.62815240e-01
2.18820612e-02
5.70521012e-01
8.95506325e-02
2.50623569e-01
2.10436298e-01
2.94882284e-01
2.47141762e-02
4.27253379e-02
1.36860221e-01
2.73646551e-03
9.73010643e-02
1.04894416e-01
3.68548642e-02
1.81931626e-01
1.41742068e-02
2.10245968e-02
8.67108599e-02
1.49402400e-01
5.72319347e-02
3.02163046e-01
1.95000490e-01
2.06676340e-01
2.44286505e-02
2.70834334e-01
2.37885824e-01
8.21356623e-02
3.50913392e-01
3.62946819e-01
2.11122848e-01
1.06163635e-01
1.35784702e-01
2.92238481e-01
4.20747787e-01
3.84882817e-01
9.01173365e-02
1.69456073e-01
2.27252682e-01
4.77023884e-02
2.29782779e-01
4.75452140e-01
1.72425067e-01
4.48884867e-01
9.24291581e-01
4.66306074e-01
3.78590472e-01
5.75738254e-01
2.47681558e+01
4.88403084e-01
1.66516782e-01
3.07897601e-01
1.12261235e-02
3.09887936e-01
3.94079215e-01
2.29511026e-01
2.30629714e-01
4.66225353e-01
5.20138338e-01
4.90694389e-01
5.51651347e-01
5.36078398e-01
1.70271920e+00
5.23528259e-01
2.74579189e-01
2.66591296e-01
5.54753362e-01
2.67954639e-01
9.69208667e-02
1.14374669e+00
2.96345640e-01
7.95680383e-02
4.91520995e-01
1.65053329e-01
4.05900037e-01
4.35941535e-01
3.11032410e-01
2.78341016e-01
7.95138666e-02
2.75967829e-01
4.62514623e-01
3.35097843e-01
2.33200852e-01
4.67331887e-01
1.53563314e+01
4.29905303e-01
1.21622263e-01
1.57993270e-01
1.79564690e-02
5.06071927e-01
2.28837647e-01
3.17918476e-02
4.74409064e-02
1.87828720e-01
5.17378814e-02
8.73106114e-02
1.20846960e-01
7.79024052e-02
4.51413051e-02
3.58502900e-01
1.01951455e-01
3.68454435e-01
1.72728482e+00
4.96958102e-01
3.98213870e-01
4.66723106e-01
2.32152291e-01
3.07072158e-01
2.83045790e-01
1.21328051e-01
2.63192905e-01
2.81835327e-01
3.07728615e-01
2.47198576e-01
7.30456751e-01
3.02068011e+00
5.64632556e-02
3.62712794e-01
1.48594463e-01
9.70421964e-02
2.47166448e+00
2.15748093e-01
2.67307182e-01
3.25670947e-01
6.55613216e-02
1.15701332e-01
8.44027031e-02
1.11724858e-01
2.56245017e-01
1.78242410e-01
6.22390410e-02
4.13257988e-01
1.73740680e+01
4.26280874e-01
1.87761370e-01
1.83942529e-01
2.67990057e-01
3.89778805e-02
4.89944079e-01
3.74215635e-01
3.72860893e-01
3.01138728e-02
2.40684404e-02
5.82862817e-01
5.09991327e-01
1.28050089e-01
1.38755158e+00
5.53020794e-01
1.93515195e-01
1.79335915e-01
1.99371013e-01
2.47919484e-01
5.28966945e-01
3.63673953e-01
4.33617047e-01
3.40764975e-01
1.10009755e-01
1.02028008e-01
4.00712414e-01
2.02456932e-01
2.01415241e-01
4.99068028e-01
2.98622774e-01
1.18037760e-01
2.71164889e-01
8.86029660e+00
5.07225965e-02
6.23062654e-02
5.11809528e-01
1.02616365e-01
3.88576135e-01
2.86254370e-02
1.02133072e-01
3.20608646e-01
2.61011017e-01
2.63328411e-01
3.68315106e-01
1.47076328e-01
2.42602008e-01
1.50785564e-01
3.30477118e-01
3.91318873e-01
2.19705234e-01
6.53222935e+00
5.42907991e-01
2.23110002e+00
1.96922238e-01
3.90322352e-01
8.50604258e-02
4.99274830e-01
4.04220896e-01
2.92456370e-01
3.32795215e-02
3.03463902e-02
3.74666605e-01
3.20470424e-01
1.44711111e-01
3.06790442e-01
2.81933369e-01
3.15760022e-01
5.65838137e-02
3.07259151e-02
4.49204790e-01
2.44410382e-01
2.49050134e-01
2.66211713e-01
2.90343164e-01
2.02153045e-01
2.24688806e-02
3.62198604e-02
5.06373655e-01
6.16327090e-02
2.44673388e-02
7.75384933e-03
2.44133693e-01
7.61536054e-02
4.83558186e-02
1.36337715e-01
9.55565214e-02
5.03702206e-02
1.37737820e-01
5.38703107e-01
1.43311491e-01
3.13783622e-01
1.98259779e-02
4.24977300e-01
4.21013169e-02
1.46628806e-01
5.55642858e-02
4.86490310e-02
6.70736012e-02
1.02110571e-01
1.63317718e-01
2.01596808e-01
4.86336468e-01
2.02809663e-01
5.43868607e-02
3.16944242e-02
3.87408458e-01
5.03512953e-01
3.49228725e-01
1.69094184e-01
2.56167319e-01
1.61389007e-02
2.04736092e-01
1.75961488e-02
3.87951164e-01
6.36339537e-02
1.35761347e-01
6.17447302e+00
1.53594328e+01
1.25735833e-01
1.58980636e-01
4.01667871e-01
3.06205190e-01
5.47394811e-02
3.06660948e-01
4.07454038e-01
2.71944553e-01
4.63287957e-01
3.98808361e-02
3.31033197e-01
1.27991457e-01
7.84788365e-02
4.83973747e-01
4.88069808e-01
1.21623201e-01
4.02613430e-01
5.51295636e-01
4.95761766e-01
5.00953702e-01
9.47911286e-02
1.06091070e-01
1.80223156e-01
1.14855080e-01
2.26545355e-02
1.39734781e-01
4.70320914e-01
2.59573347e-01
1.26517543e-01
1.50843186e-01
1.95863443e-01
4.93083471e-01
3.13920922e-01
1.41698716e-01
3.43576642e-01
3.77615570e-01
9.50452966e-01
8.34265260e-02
5.58139264e-01
1.00657142e-01
1.56745545e+01
9.95988899e+00
1.15511310e-01
3.72695354e-01
4.57977409e-01
1.07085706e-01
1.24852800e+00
3.27590934e-01
1.85510728e-01
4.12180882e-01
2.04943924e-01
4.43109235e-01
2.08093955e-02
5.08828895e-02
4.86605892e-01
1.89831985e-02
3.48993859e-02
1.30355380e-01
1.20331071e+00
2.84805221e-01
2.31850136e-01
1.07548384e+01
6.83403156e-02
4.01370526e-02
2.24362776e-01
6.93661023e-01
2.16223441e+00
1.26753801e-02
3.45036729e+00
4.82790722e-01
5.34761870e-01
1.31172394e+00
4.91560939e-01
5.46556454e-01
5.52593552e-01
4.70359543e-01
4.04892982e-01
5.33262631e-01
1.13426744e+01
4.67883525e-01
5.24496206e-01
1.61089875e-01
3.73845736e-01
3.10655708e-02
5.63125404e-01
5.11574412e-01
9.11136856e-02
4.20301907e-01
3.85154619e-02
2.11351704e-01
2.55168776e-01
7.05475137e-02
4.44514969e-01
4.34578073e-01
2.10570606e-01
1.54460586e-01
9.51617033e-02
2.20596578e+00
3.51635152e-01
2.91915431e-01
3.64480675e-01
3.45774360e-02
4.05226912e-01
2.49280189e-03
3.69900888e-01
4.25012863e-01
1.40188191e-01
1.09881357e-01
3.22320382e-01
1.64095856e-01
3.74185806e-02
3.36758512e-02
6.35326272e-01
2.39100344e-01
3.14284297e-01
5.08544287e-01
1.69642293e+00
2.03679637e-01
3.50806539e-01
6.74219515e-01
4.30034892e-01
3.93373109e-01
1.62123786e+00
5.48779252e-01
4.18183290e-01
2.04219117e-01
3.64196304e-01
5.30090083e-01
7.39787854e-02
3.49941117e-01
3.33177414e-01
6.33939541e-02
3.09168443e-01
4.51957574e-01
3.66308567e-01
4.18478474e-01
2.74354796e-01
2.35900102e-01
7.40833080e-02
2.09504557e-01
5.41135314e-01
5.02235399e-01
9.91873567e-02
5.06554372e-01
5.04161380e-01
4.92492610e-01
3.81243695e-01
8.23843877e-02
1.48255122e-01
1.10549097e-01
1.95989788e-01
1.86672180e-01
1.08341561e-01
3.97264940e-01
5.08671436e-01
8.69372715e-02
4.66345175e-01
8.77619690e-02
3.16611399e-02
5.84943656e-01
8.70405321e-02
1.66315126e-02
5.63499999e-01
4.38516279e-01
3.39230835e-01
5.04082916e-01
4.20539069e-01
5.35394262e-01
5.79952113e-01
5.14206672e-01
3.49356649e-01
4.87831901e-01
7.06231870e-02
9.54480883e-02
3.80960868e-01
4.44849844e-01
3.82783699e-01
5.19465448e-01
4.10500545e-01
2.18966081e-01
3.96000927e-01
2.29314292e-01
3.10045151e-01
1.41975034e-01
1.78345945e-01
5.47435611e-01
3.37225772e-01
3.59839403e-01
2.14424698e-01
1.37717719e-01
5.65564126e-01
3.65532791e-02
4.26219423e-01
3.92526640e-02
1.75141200e-01
3.10085272e-01
2.10986428e-01
1.54606246e-02
2.12412219e-02
3.65910297e-01
4.74932021e-02
4.90282547e-01
3.59831996e-01
4.51477003e-01
1.23165106e-01
5.00635498e-01
4.49152711e-01
1.18480004e-01
9.22247136e-02
4.40077144e-01
3.37380946e-01
2.70790286e-01
1.72842942e-01
7.43891551e-02
7.96664668e-02
2.01969639e-02
1.83065140e-01
4.21480254e-01
1.15579391e-01
1.17563152e-01
1.75724504e-02
4.49927147e-01
7.23295757e-02
4.36893416e-01
9.70383979e-02
2.92099351e-01
6.53052902e-02
7.94394735e-02
2.24404197e-02
2.55068007e-01
1.14369291e-01
3.24044055e-02
4.60670672e-01
8.01652854e-02
3.21621128e-01
2.39463117e-01
3.42004405e-01
1.48283690e-01
1.06708356e-01
2.75848285e-01
4.39375410e-02
1.04300021e+01
1.44432409e-01
2.53083520e-01
3.34065760e-01
1.06172243e-01
5.18962576e-01
4.66225771e-01
3.82908949e-01
4.79994857e-01
6.40698582e-01
5.06795262e-01
1.74448163e-01
8.99960401e-02
1.38564510e-01
3.23477449e-01
1.79278509e-02
5.22020951e-01
4.11947775e-01
4.09150137e-01
4.55617331e-01
2.81526106e-01
2.86827157e-01
2.85518836e+00
1.86253837e-01
4.55182705e-01
3.04722505e-01
2.37269433e-01
3.77651754e-01
1.41934486e-01
3.39877374e+00
3.58843352e-01
5.02389643e-01
1.77084585e-02
1.79737851e-01
1.96673552e-01
7.25413085e-02
2.99264326e-01
4.15089781e-02
5.06180274e-02
7.46528343e-01
2.34102361e-02
3.67071703e-01
5.01569191e-01
3.21226613e+00
4.16995367e+00
4.41577142e-01
4.13434092e-01
1.39400363e-01
1.14308854e-01
4.49873467e-01
1.75056891e-02
3.45930367e-01
7.14350625e-02
1.92815440e-01
2.09882476e-01
5.97943247e-02
1.20530785e-01
3.01793072e-01
1.33188997e-01
1.39809693e-01
1.22648526e-01
4.52434878e-02
2.41138253e-01
1.34529142e-01
4.73926523e+00
1.49590692e-01
2.18834821e-01
1.24119147e+01
1.82259203e+00
4.31157014e-01
2.20519968e-01
1.66012393e-01
1.33496145e+01
4.14265096e-01
2.45037112e-02
2.35709700e-02
1.18420191e+00
3.46081742e+00
9.36987124e-02
3.90334977e+00
3.11111818e-01
1.66038404e-01
6.49785523e-02
5.58954277e-01
1.71602230e-01
5.10202666e-01
2.96483091e-01
5.95196609e-01
1.57667383e-01
4.51063616e-01
5.57731205e-01
3.91224182e-01
2.55663575e-02
5.17601289e-02
2.03424384e+00
2.81192618e-01
1.71417878e-01
2.32263209e-01
1.53690051e-01
4.10870819e+00
1.91800369e-01
2.17681769e-01
2.89696312e-01
1.82175545e-01
2.13189618e-01
4.18296187e-02
1.52780341e-01
2.27859516e-01
2.06293726e-01
3.84816987e-01
2.36718289e-01
2.67927593e-01
1.94250700e-01
8.27194514e-01
5.20057470e-01
2.12511675e-01
5.18947734e-01
1.71844521e-01
1.58821000e-01
3.83422477e-02
1.57635995e-02
2.07927430e-01
5.02340485e-01
1.95317396e-01
4.32466035e-01
4.01335190e-01
2.90573340e-02
2.15177179e-01
1.30411899e-02
2.18727168e-01
1.40430247e-01
1.00021529e-01
6.42939683e-02
2.01171182e-01
2.00937450e-01
9.23961054e-02
1.07193243e-01
1.34693309e-01
6.50513002e-02
1.65009048e-01
2.18378181e-01
4.87008037e-01
8.31347773e+00
2.17413016e+01
1.19182356e-01
7.28761246e-03
9.58187472e-02
5.50813627e-01
2.09749257e-02
6.53196779e-02
2.64629034e-02
5.54735775e-03
1.19758812e-01
9.84338043e-02
3.24747956e-01
3.65738789e-01
3.78687296e-02
2.16490433e-02
4.15433813e-01
3.64017636e-01
1.10355940e-01
2.20958046e-02
3.33683145e-01
3.33644272e-02
3.63095255e-02
1.04083670e-01
1.97735697e-02
4.10867710e-01
4.76422645e-01
3.24519446e-01
1.11263435e-01
2.80103904e-01
6.33782078e-02
1.53166432e-01
3.46220945e-01
3.01197929e-02
1.25172137e-01
1.82318103e+00
3.27485517e-01
4.10061321e+00
2.63261035e-01
2.15632799e-01
1.38958814e-01
1.80121767e-01
3.01531884e-01
1.82462994e-02
8.41179431e-02
1.99116828e-01
4.16461552e-02
1.68487041e-02
1.84992556e+00
3.12467327e-02
5.02559560e-01
2.88782789e-01
1.88326682e-02
9.31825788e+00
1.26908214e+01
2.95083783e-02
3.15994350e-01
3.08982427e-01
2.43860596e-01
3.99251458e-02
2.80341774e+00
1.85780550e+00
3.56686072e-01
3.23545910e-01
2.77566979e-01
4.49028305e+00
3.92640648e-01
7.54773286e-02
2.18954201e+00
1.69233244e+01
2.92379782e-01
8.70988027e+00
3.48622266e-02
2.03131537e-01
9.37405364e-02
1.38650634e-01
9.19023168e-02
2.70998387e-01
8.77150926e-02
1.84115390e-01
8.37662975e-02
4.47020636e-02
1.53780471e+01
8.55224371e+00
1.89766655e-01
2.71418790e-01
3.17620503e-01
3.36251525e-01
3.79357501e-01
2.97112591e-01
8.15808718e-02
5.22032083e-02
4.73881030e-01
2.91384805e-01
1.92915956e-02
2.22716999e-02
2.75232807e-01
3.96830898e-02
2.46254292e-02
2.37198008e-01
3.50773266e-02
3.32524756e-02
2.36087490e-01
1.46179154e-01
2.22313517e-01
3.01534677e-02
2.10541643e-01
2.68205040e-01
2.09679224e-01
2.16947299e-01
3.17534316e-01
2.65585189e-01
1.29063732e-01
1.01083559e-01
5.43593137e-02
1.51444669e+00
1.26523429e-01
4.09486451e-01
4.22883881e-01
8.77200613e-02
2.67400764e-01
2.05991782e-01
5.59383480e-01
4.12305339e-01
3.08224316e-02
1.71032876e-02
1.14548278e-01
1.17150576e-01
1.16690959e-01
1.10725707e-01
1.15494180e-01
2.95436459e-01
1.74238699e-02
7.85383332e-02
4.37907039e-02
7.65099411e-02
2.57443025e-01
2.86583573e-01
5.65758759e-01
3.97679361e-01
4.24946537e-01
5.14662509e-01
1.89937447e-01
1.24343156e-01
1.00336287e-01
3.96265846e-01
1.67029528e-01
6.55748969e-01
4.18203313e-01
1.73993682e-01
5.45309800e-01
2.62152978e-01
1.71030191e+01
1.27170586e-01
7.88672300e+00
4.28819718e+00
1.30383812e-01
2.61530523e-01
4.83207220e-01
3.44003214e-01
2.89720334e-01
1.18024234e-02
1.17001354e-01
3.51906977e-01
5.95898602e-02
4.43824238e-01
2.02053768e-01
3.39383702e-01
1.58226200e-01
5.88539786e-02
1.07743608e-01
4.24515237e-01
2.73854945e-02
7.28918471e-02
3.50598949e-01
8.55415642e-02
8.95241953e-02
5.28159922e-01
2.40748510e-01
1.58796560e-01
1.47895095e-01
3.75194214e-01
2.14089526e+01
3.33278939e-01
1.26479252e-02
1.14545558e+01
2.10340473e-01
3.96274113e-01
3.00372840e-01
1.88547790e-01
3.33893217e-01
2.21860460e+00
2.98072482e-01
1.68837119e-02
1.58632516e-01
2.13856773e-01
1.13594938e+01
4.50532683e-01
1.44515318e+01
1.63438175e-01
4.50856718e-01
2.91523448e-02
1.29996778e-01
5.33537442e-01
1.55355909e+00
2.95868007e+00
3.25601115e-01
1.01122893e-02
3.70912204e-02
3.79173021e-01
1.68645974e-02
1.30363213e-03
5.24862256e-01
1.17571601e+00
1.18066974e+00
3.28053402e-01
9.19262409e-03
1.61439243e+01
5.41128818e-01
3.27329682e+00
1.21829291e+00
9.13601947e-01
2.35087250e+00
4.72584956e-01
4.33894981e-01
1.20087949e+00
1.14832436e+00
3.45561939e-01
4.57881509e+00
4.27828922e-01
3.18611139e+00
1.94631545e-02
3.58147926e-01
2.62091221e-01
4.33014704e-01
1.01246325e-01
1.09095203e-01
4.23502742e-01
1.59639882e-01
1.48889273e-01
4.77139272e-01
2.38403349e-01
5.04764315e-01
2.50051557e-01
4.51806834e-01
1.89868031e-01
1.96696783e-01
1.66706995e-01
6.03293421e-02
1.30882356e-01
3.62195977e-01
4.05263477e-01
4.23102121e-02
1.80120428e-01
2.32567893e-01
4.28040849e-02
1.83553073e-01
3.71147989e-01
1.45397503e-01
1.32307191e-01
2.97827976e-01
5.16537833e-01
4.00135531e-01
4.56265963e-01
8.19384706e-02
1.14098824e-01
4.72426136e-01
6.17178555e-02
2.25926308e-02
2.26141003e-02
3.21435821e-02
5.44854441e-02